2
 energy: -0.789599605197 gnorm: 0.000000000000 xtb: 6.5.1 (bb5769e)
H          -0.7        0.0 0.0
H           0.7       0.0 0.0
