2
 energy: -0.789599605197 gnorm: 0.000000000000 xtb: 6.5.1 (bb5769e)
H          -18.78690000000000        0.07350000000000       56.46149999999999
H           23.70840000000000       -0.07350000000000      -56.01969999999999
